 Program PWSCF v.7.2 starts
 convergence has been achieved
 !    total energy              =      -2.02121274 Ry
 End of BFGS Geometry Optimization
 JOB DONE.
